   * xtb version 6.6.1 (8d0f1dd) compiled by 'stahn@M-Bot' on 2023-08-01
          program call               : xtb conf.xyz --opt tight --chrg 0 --uhf 0 --gfn2

   ID    Z sym.   atoms
    1    6 C      1-4
    2    1 H      5-14

          :  Hamiltonian                  GFN2-xTB          :
 * total energy  :   -13.6638671 Eh     change       -0.2181011E-10 Eh
 * total energy  :   -13.6641320 Eh     change       -0.2649470E-03 Eh
 * total energy  :   -13.6641631 Eh     change       -0.3107677E-04 Eh
 * total energy  :   -13.6641675 Eh     change       -0.4377862E-05 Eh
 * total energy  :   -13.6641698 Eh     change       -0.2346955E-05 Eh
 * total energy  :   -13.6641715 Eh     change       -0.1660663E-05 Eh
 * total energy  :   -13.6641726 Eh     change       -0.1104917E-05 Eh
 * total energy  :   -13.6641735 Eh     change       -0.8855210E-06 Eh
   *** GEOMETRY OPTIMIZATION CONVERGED AFTER 8 ITERATIONS ***

 final structure:
================
14
 xtb: 6.6.1 (8d0f1dd)
C           -1.60531390918748       -0.03112078357454       -0.42207677720980
C           -0.49532986506359       -0.82397677717237        0.25799188993789
C            0.90346499681140       -0.43136489583982       -0.21849876116177
C            1.29386731809873        0.98906793671381        0.17282613144572
H           -1.52985369294153       -0.12209519348708       -1.50373603721924
H           -2.57941994318493       -0.40479328434897       -0.11408527226326
H           -1.54983570986620        1.02212790376993       -0.15993579339915
H           -0.55923487243308       -0.68222385116726        1.33945730461669
H           -0.64615082993224       -1.88727627721820        0.05532040034731
H            1.62639607691912       -1.12776122338101        0.21374114216299
H            0.95495128894063       -0.53492032111127       -1.30494738819626
H            2.32424045275199        1.18967414127590       -0.11258731555867
H            1.20357803419596        1.12565363268933        1.24853498489708
H            0.65864066489123        1.71900899285155       -0.32194823839953

          :  Hamiltonian                  GFN2-xTB          :
         :: total energy             -13.664173451030 Eh    ::
         :: gradient norm              0.000145390360 Eh/a0 ::
         :: HOMO-LUMO gap             14.265470318129 eV    ::
         :: SCC energy               -13.874992056266 Eh    ::
         :: -> dispersion             -0.006306834630 Eh    ::
         :: repulsion energy           0.210811516495 Eh    ::

    * Orbital Energies and Occupations

         #    Occupation            Energy/Eh            Energy/eV
      -------------------------------------------------------------
         1        2.0000           -0.6178205             -16.8118
         2        2.0000           -0.5960176             -16.2185
         3        2.0000           -0.5731978             -15.5975
         4        2.0000           -0.5474096             -14.8958
         5        2.0000           -0.5063981             -13.7798
         6        2.0000           -0.5060877             -13.7713
         7        2.0000           -0.4848280             -13.1928
         8        2.0000           -0.4664880             -12.6938
         9        2.0000           -0.4618480             -12.5675
        10        2.0000           -0.4480226             -12.1913
        11        2.0000           -0.4257831             -11.5861
        12        2.0000           -0.4232979             -11.5185
        13        2.0000           -0.4223673             -11.4932 (HOMO)
        14                          0.1018791               2.7723 (LUMO)
        15                          0.1112092               3.0262
        16                          0.1369508               3.7266
        17                          0.1488742               4.0511
        18                          0.1503064               4.0900
        19                          0.1579371               4.2977
        20                          0.2030828               5.5262
        21                          0.2063423               5.6149
        22                          0.2345612               6.3827
        23                          0.2483955               6.7592
        24                          0.2787869               7.5862
       ...                                ...                  ...
        26                          0.2993067               8.1446
      -------------------------------------------------------------
                  HL-Gap            0.5242464 Eh           14.2655 eV

     #   Z          covCN         q      C6AA      α(0)
     1   6 C        3.751    -0.101    22.493     6.764
     2   6 C        3.800    -0.052    21.517     6.604
     3   6 C        3.800    -0.052    21.517     6.604
     4   6 C        3.751    -0.101    22.493     6.764
     5   1 H        0.925     0.033     2.549     2.497
     6   1 H        0.925     0.030     2.586     2.515
     7   1 H        0.925     0.035     2.510     2.478
     8   1 H        0.924     0.029     2.594     2.519
     9   1 H        0.924     0.026     2.644     2.543
    10   1 H        0.924     0.026     2.644     2.543
    11   1 H        0.924     0.029     2.594     2.519
    12   1 H        0.925     0.030     2.586     2.515
    13   1 H        0.925     0.033     2.549     2.497
    14   1 H        0.925     0.035     2.510     2.478

Wiberg/Mayer (AO) data.
largest (>0.10) Wiberg bond orders for each atom

     #   Z sym  total        # sym  WBO       # sym  WBO       # sym  WBO
 ---------------------------------------------------------------------------
     1   6 C    3.997 --     2 C    1.020     5 H    0.988     6 H    0.988
                             7 H    0.986
     2   6 C    3.998 --     1 C    1.020     3 C    1.008     9 H    0.979
                             8 H    0.978
     3   6 C    3.998 --     4 C    1.020     2 C    1.008    10 H    0.979
                            11 H    0.978
     4   6 C    3.997 --     3 C    1.020    13 H    0.988    12 H    0.988
                            14 H    0.986
     5   1 H    0.999 --     1 C    0.988
     6   1 H    0.999 --     1 C    0.988
     7   1 H    0.999 --     1 C    0.986
     8   1 H    0.999 --     2 C    0.978
     9   1 H    0.999 --     2 C    0.979
    10   1 H    0.999 --     3 C    0.979
    11   1 H    0.999 --     3 C    0.978
    12   1 H    0.999 --     4 C    0.988
    13   1 H    0.999 --     4 C    0.988
    14   1 H    0.999 --     4 C    0.986
 ---------------------------------------------------------------------------

molecular dipole:
                 x           y           z       tot (Debye)
 q only:       -0.005       0.015      -0.002
   full:       -0.004       0.012      -0.002       0.032

           -------------------------------------------------
          | TOTAL ENERGY              -13.664173451030 Eh   |
          | GRADIENT NORM               0.000145390360 Eh/α |
          | HOMO-LUMO GAP              14.265470318129 eV   |
           -------------------------------------------------

 * finished run on 2025/08/26 at 12:19:44.721
