   * xtb version 6.6.1 (8d0f1dd) compiled by 'stahn@M-Bot' on 2023-08-01
          program call               : xtb conf.xyz --opt tight --chrg 0 --uhf 0 --gfn2

   ID    Z sym.   atoms
    1    6 C      1-4
    2    1 H      5-14

          :  Hamiltonian                  GFN2-xTB          :
 * total energy  :   -13.6651278 Eh     change       -0.1678657E-11 Eh
   *** GEOMETRY OPTIMIZATION CONVERGED AFTER 1 ITERATIONS ***

 final structure:
================
14
 xtb: 6.6.1 (8d0f1dd)
C           -1.93790572000000        0.13365490000000       -0.00001079000000
C           -0.56066878000000       -0.51808649000000        0.00001536000000
C            0.56066959000000        0.51810721000000        0.00001279000000
C            1.93790988000000       -0.13367652000000       -0.00000816000000
H           -2.06419493000000        0.75846742000000       -0.88171931000000
H           -2.06423816000000        0.75858229000000        0.88162915000000
H           -2.72027856000000       -0.62185392000000       -0.00000366000000
H           -0.46086734000000       -1.15568013000000       -0.88161408000000
H           -0.46090884000000       -1.15564130000000        0.88167534000000
H            0.46083431000000        1.15570455000000        0.88163421000000
H            0.46084110000000        1.15566729000000       -0.88163412000000
H            2.06426718000000       -0.75857061000000        0.88166141000000
H            2.72026766000000        0.62186143000000       -0.00002251000000
H            2.06421827000000       -0.75852646000000       -0.88171602000000

          :  Hamiltonian                  GFN2-xTB          :
         :: total energy             -13.665127753492 Eh    ::
         :: gradient norm              0.000041489992 Eh/a0 ::
         :: HOMO-LUMO gap             13.802785817687 eV    ::
         :: SCC energy               -13.876050581265 Eh    ::
         :: -> dispersion             -0.006049092711 Eh    ::
         :: repulsion energy           0.210918956953 Eh    ::

    * Orbital Energies and Occupations

         #    Occupation            Energy/Eh            Energy/eV
      -------------------------------------------------------------
         1        2.0000           -0.6179733             -16.8159
         2        2.0000           -0.5989756             -16.2990
         3        2.0000           -0.5679209             -15.4539
         4        2.0000           -0.5524013             -15.0316
         5        2.0000           -0.5138429             -13.9824
         6        2.0000           -0.4918510             -13.3839
         7        2.0000           -0.4878882             -13.2761
         8        2.0000           -0.4789806             -13.0337
         9        2.0000           -0.4546564             -12.3718
        10        2.0000           -0.4395088             -11.9596
        11        2.0000           -0.4367351             -11.8842
        12        2.0000           -0.4258097             -11.5869
        13        2.0000           -0.4195595             -11.4168 (HOMO)
        14                          0.0876835               2.3860 (LUMO)
        15                          0.1267304               3.4485
        16                          0.1277863               3.4772
        17                          0.1525771               4.1518
        18                          0.1629138               4.4331
        19                          0.1837459               5.0000
        20                          0.1937545               5.2723
        21                          0.1971501               5.3647
        22                          0.2245688               6.1108
        23                          0.2549146               6.9366
        24                          0.2645806               7.1996
       ...                                ...                  ...
        26                          0.3114167               8.4741
      -------------------------------------------------------------
                  HL-Gap            0.5072430 Eh           13.8028 eV

     #   Z          covCN         q      C6AA      α(0)
     1   6 C        3.752    -0.102    22.510     6.766
     2   6 C        3.801    -0.053    21.534     6.607
     3   6 C        3.801    -0.053    21.534     6.607
     4   6 C        3.752    -0.102    22.510     6.766
     5   1 H        0.925     0.033     2.550     2.497
     6   1 H        0.925     0.033     2.550     2.497
     7   1 H        0.925     0.032     2.554     2.499
     8   1 H        0.924     0.029     2.600     2.522
     9   1 H        0.924     0.029     2.600     2.522
    10   1 H        0.924     0.029     2.600     2.522
    11   1 H        0.924     0.029     2.600     2.522
    12   1 H        0.925     0.033     2.550     2.497
    13   1 H        0.925     0.032     2.554     2.499
    14   1 H        0.925     0.033     2.550     2.497

Wiberg/Mayer (AO) data.
largest (>0.10) Wiberg bond orders for each atom

     #   Z sym  total        # sym  WBO       # sym  WBO       # sym  WBO
 ---------------------------------------------------------------------------
     1   6 C    3.997 --     2 C    1.019     5 H    0.988     6 H    0.988
                             7 H    0.988
     2   6 C    3.998 --     1 C    1.019     3 C    1.009     9 H    0.979
                             8 H    0.979
     3   6 C    3.998 --     4 C    1.019     2 C    1.009    10 H    0.979
                            11 H    0.979
     4   6 C    3.997 --     3 C    1.019    12 H    0.988    14 H    0.988
                            13 H    0.988
     5   1 H    0.999 --     1 C    0.988
     6   1 H    0.999 --     1 C    0.988
     7   1 H    0.999 --     1 C    0.988
     8   1 H    0.999 --     2 C    0.979
     9   1 H    0.999 --     2 C    0.979
    10   1 H    0.999 --     3 C    0.979
    11   1 H    0.999 --     3 C    0.979
    12   1 H    0.999 --     4 C    0.988
    13   1 H    0.999 --     4 C    0.988
    14   1 H    0.999 --     4 C    0.988
 ---------------------------------------------------------------------------

molecular dipole:
                 x           y           z       tot (Debye)
 q only:        0.000       0.000      -0.000
   full:       -0.000       0.000      -0.000       0.000

           -------------------------------------------------
          | TOTAL ENERGY              -13.665127753492 Eh   |
          | GRADIENT NORM               0.000041489992 Eh/α |
          | HOMO-LUMO GAP              13.802785817687 eV   |
           -------------------------------------------------

 * finished run on 2025/08/19 at 14:02:06.424
