   * xtb version 6.6.1 (8d0f1dd) compiled by 'stahn@M-Bot' on 2023-08-01
          program call               : xtb conf.xyz --opt tight --chrg 1 --uhf 0 --gfn2 --input constraints.inp
          :  Hamiltonian                  GFN2-xTB          :
 * total energy  :   -11.6696764 Eh     change       -0.1115179E-09 Eh
 * total energy  :   -11.6835705 Eh     change       -0.1389405E-01 Eh
 * total energy  :   -11.6884027 Eh     change       -0.4832186E-02 Eh
 * total energy  :   -11.6927209 Eh     change       -0.4318194E-02 Eh
 * total energy  :   -11.6970859 Eh     change       -0.4365025E-02 Eh
 * total energy  :   -11.7074389 Eh     change       -0.1035301E-01 Eh
 * total energy  :   -11.7142260 Eh     change       -0.6787141E-02 Eh
 * total energy  :   -11.7220564 Eh     change       -0.7830401E-02 Eh
 * total energy  :   -11.7263241 Eh     change       -0.4267686E-02 Eh
 * total energy  :   -11.7272762 Eh     change       -0.9520433E-03 Eh
 * total energy  :   -11.7355266 Eh     change       -0.3738941E-03 Eh
 * total energy  :   -11.7358356 Eh     change       -0.3090494E-03 Eh
 * total energy  :   -11.7361287 Eh     change       -0.2930213E-03 Eh
 * total energy  :   -11.7362569 Eh     change       -0.1282133E-03 Eh
 * total energy  :   -11.7362815 Eh     change       -0.2464290E-04 Eh
 * total energy  :   -11.7362900 Eh     change       -0.8516932E-05 Eh
 * total energy  :   -11.7362949 Eh     change       -0.4871301E-05 Eh
 * total energy  :   -11.7362976 Eh     change       -0.2685367E-05 Eh
 * total energy  :   -11.7362983 Eh     change       -0.7148223E-06 Eh
   *** GEOMETRY OPTIMIZATION CONVERGED AFTER 28 ITERATIONS ***

 final structure:
================
6
 xtb: 6.6.1 (8d0f1dd)
C           -0.13727932850334       -0.03817416479537        1.45999476695352
H            0.08712365112102        0.87815476192427        2.01876262747555
H           -1.38912972982133       -0.00156145099813        1.46055605060753
H            0.03288980487081       -0.97349130839727        2.00631559656738
Br          -3.13248072534782        0.04782930704643        1.66503939263476
Cl           0.39083620768067       -0.04281889477994       -0.12817422423878

          :  Hamiltonian                  GFN2-xTB          :
         :: total energy             -11.736298311305 Eh    ::
         :: gradient norm              0.000247944781 Eh/a0 ::
         :: HOMO-LUMO gap              0.389068563859 eV    ::
         :: SCC energy               -11.782322645602 Eh    ::
         :: -> dispersion             -0.002369696814 Eh    ::
         :: repulsion energy           0.046023852941 Eh    ::

    * Orbital Energies and Occupations

         #    Occupation            Energy/Eh            Energy/eV
      -------------------------------------------------------------
         1        2.0000           -1.2894770             -35.0885
         2        2.0000           -1.0406652             -28.3179
         3        2.0000           -0.8776125             -23.8811
         4        2.0000           -0.7790660             -21.1995
         5        2.0000           -0.7766615             -21.1340
         6        2.0000           -0.7714872             -20.9932
         7        2.0000           -0.6888288             -18.7440
         8        2.0000           -0.6689050             -18.2018
         9        1.9994           -0.6352557             -17.2862
        10        1.9992           -0.6349695             -17.2784 (HOMO)
        11        0.0014           -0.6206715             -16.8893 (LUMO)
        12                         -0.3713210             -10.1042
        13                         -0.2948104              -8.0222
        14                         -0.2451318              -6.6704
        15                         -0.2382237              -6.4824
        16                         -0.2377316              -6.4690
        17                         -0.2242916              -6.1033
        18                         -0.1927803              -5.2458
        19                         -0.1922364              -5.2310
        20                         -0.1626027              -4.4246
        21                         -0.1625692              -4.4237
       ...                                ...                  ...
        25                          0.2270795               6.1791
      -------------------------------------------------------------
                  HL-Gap            0.0142980 Eh            0.3891 eV

     #   Z          covCN         q      C6AA      α(0)
     1   6 C        3.599    -0.033    21.769     6.751
     2   1 H        0.924     0.211     1.046     1.599
     3   1 H        1.582     0.292     0.728     1.332
     4   1 H        0.924     0.211     1.046     1.599
     5  35 Br       0.762     0.059   182.832    21.799
     6  17 Cl       0.893     0.260    91.701    14.650

Wiberg/Mayer (AO) data.
largest (>0.10) Wiberg bond orders for each atom

     #   Z sym  total        # sym  WBO       # sym  WBO       # sym  WBO
 ---------------------------------------------------------------------------
     1   6 C    3.853 --     6 Cl   1.316     2 H    0.923     4 H    0.923
                             3 H    0.488     5 Br   0.204
     2   1 H    0.956 --     1 C    0.923
     3   1 H    0.915 --     1 C    0.488     5 Br   0.419
     4   1 H    0.956 --     1 C    0.923
     5  35 Br   1.018 --     3 H    0.419     6 Cl   0.364     1 C    0.204
     6  17 Cl   1.707 --     1 C    1.316     5 Br   0.364
 ---------------------------------------------------------------------------

molecular dipole:
                 x           y           z       tot (Debye)
 q only:       -0.867      -0.052       2.441
   full:       -1.358      -0.035       2.076       6.305

           -------------------------------------------------
          | TOTAL ENERGY              -11.736298311305 Eh   |
          | GRADIENT NORM               0.000247944781 Eh/α |
          | HOMO-LUMO GAP               0.389068563859 eV   |
           -------------------------------------------------

 * finished run on 2025/10/06 at 17:40:02.129
