   * xtb version 6.6.1 (8d0f1dd) compiled by 'stahn@M-Bot' on 2023-08-01
          program call               : xtb conf.xyz --opt tight --chrg 0 --uhf 0 --gfn2

   ID    Z sym.   atoms
    1    6 C      1-4
    2    1 H      5-14

          :  Hamiltonian                  GFN2-xTB          :
 * total energy  :   -13.6638671 Eh     change       -0.5904610E-11 Eh
 * total energy  :   -13.6641320 Eh     change       -0.2649363E-03 Eh
 * total energy  :   -13.6641631 Eh     change       -0.3107254E-04 Eh
 * total energy  :   -13.6641675 Eh     change       -0.4375772E-05 Eh
 * total energy  :   -13.6641698 Eh     change       -0.2345549E-05 Eh
 * total energy  :   -13.6641715 Eh     change       -0.1659866E-05 Eh
 * total energy  :   -13.6641726 Eh     change       -0.1104576E-05 Eh
 * total energy  :   -13.6641735 Eh     change       -0.8852421E-06 Eh
   *** GEOMETRY OPTIMIZATION CONVERGED AFTER 8 ITERATIONS ***

 final structure:
================
14
 xtb: 6.6.1 (8d0f1dd)
C            1.48966927670584        0.13126452140877        0.68645030495344
C            0.32713157177220       -0.83197686119819        0.47704463464446
C           -0.55880170329055       -0.45671868760986       -0.71128109494356
C           -1.31288255333545        0.85213483591971       -0.50770521978795
H            2.13576953109916       -0.22483223551454        1.48590137762673
H            2.08284334746964        0.21467539291594       -0.22192433001035
H            1.13254138174256        1.12136187659941        0.95718151666952
H            0.72618181985861       -1.83563993668401        0.31016792180389
H           -0.28271222332088       -0.86611534529373        1.38295316140769
H           -1.28259996360340       -1.25950908669727       -0.87274983679470
H            0.05809199065979       -0.38336430378127       -1.61006163463877
H           -1.89764024046748        0.81554034105336        0.40917896334809
H           -1.99092141604134        1.03056967736143       -1.33944843371499
H           -0.62667079924870        1.69260981152026       -0.44570734056350

          :  Hamiltonian                  GFN2-xTB          :
         :: total energy             -13.664173452603 Eh    ::
         :: gradient norm              0.000145364201 Eh/a0 ::
         :: HOMO-LUMO gap             14.265467956278 eV    ::
         :: SCC energy               -13.874992070229 Eh    ::
         :: -> dispersion             -0.006306833874 Eh    ::
         :: repulsion energy           0.210811528883 Eh    ::

    * Orbital Energies and Occupations

         #    Occupation            Energy/Eh            Energy/eV
      -------------------------------------------------------------
         1        2.0000           -0.6178205             -16.8118
         2        2.0000           -0.5960176             -16.2185
         3        2.0000           -0.5731978             -15.5975
         4        2.0000           -0.5474096             -14.8958
         5        2.0000           -0.5063981             -13.7798
         6        2.0000           -0.5060877             -13.7713
         7        2.0000           -0.4848280             -13.1928
         8        2.0000           -0.4664880             -12.6938
         9        2.0000           -0.4618480             -12.5675
        10        2.0000           -0.4480227             -12.1913
        11        2.0000           -0.4257832             -11.5861
        12        2.0000           -0.4232979             -11.5185
        13        2.0000           -0.4223672             -11.4932 (HOMO)
        14                          0.1018791               2.7723 (LUMO)
        15                          0.1112092               3.0262
        16                          0.1369509               3.7266
        17                          0.1488742               4.0511
        18                          0.1503064               4.0900
        19                          0.1579370               4.2977
        20                          0.2030827               5.5262
        21                          0.2063424               5.6149
        22                          0.2345613               6.3827
        23                          0.2483955               6.7592
        24                          0.2787868               7.5862
       ...                                ...                  ...
        26                          0.2993065               8.1445
      -------------------------------------------------------------
                  HL-Gap            0.5242463 Eh           14.2655 eV

     #   Z          covCN         q      C6AA      α(0)
     1   6 C        3.751    -0.101    22.493     6.764
     2   6 C        3.800    -0.052    21.517     6.604
     3   6 C        3.800    -0.052    21.517     6.604
     4   6 C        3.751    -0.101    22.493     6.764
     5   1 H        0.925     0.030     2.586     2.515
     6   1 H        0.925     0.033     2.549     2.497
     7   1 H        0.925     0.035     2.510     2.478
     8   1 H        0.924     0.026     2.644     2.543
     9   1 H        0.924     0.029     2.594     2.519
    10   1 H        0.924     0.026     2.644     2.543
    11   1 H        0.924     0.029     2.594     2.519
    12   1 H        0.925     0.033     2.549     2.497
    13   1 H        0.925     0.030     2.586     2.515
    14   1 H        0.925     0.035     2.510     2.478

Wiberg/Mayer (AO) data.
largest (>0.10) Wiberg bond orders for each atom

     #   Z sym  total        # sym  WBO       # sym  WBO       # sym  WBO
 ---------------------------------------------------------------------------
     1   6 C    3.997 --     2 C    1.020     6 H    0.988     5 H    0.988
                             7 H    0.986
     2   6 C    3.998 --     1 C    1.020     3 C    1.008     8 H    0.979
                             9 H    0.978
     3   6 C    3.998 --     4 C    1.020     2 C    1.008    10 H    0.979
                            11 H    0.978
     4   6 C    3.997 --     3 C    1.020    12 H    0.988    13 H    0.988
                            14 H    0.986
     5   1 H    0.999 --     1 C    0.988
     6   1 H    0.999 --     1 C    0.988
     7   1 H    0.999 --     1 C    0.986
     8   1 H    0.999 --     2 C    0.979
     9   1 H    0.999 --     2 C    0.978
    10   1 H    0.999 --     3 C    0.979
    11   1 H    0.999 --     3 C    0.978
    12   1 H    0.999 --     4 C    0.988
    13   1 H    0.999 --     4 C    0.988
    14   1 H    0.999 --     4 C    0.986
 ---------------------------------------------------------------------------

molecular dipole:
                 x           y           z       tot (Debye)
 q only:        0.003       0.016       0.003
   full:        0.002       0.012       0.002       0.032

           -------------------------------------------------
          | TOTAL ENERGY              -13.664173452603 Eh   |
          | GRADIENT NORM               0.000145364201 Eh/α |
          | HOMO-LUMO GAP              14.265467956278 eV   |
           -------------------------------------------------

 * finished run on 2025/08/19 at 09:39:18.160
