   * xtb version 6.6.1 (8d0f1dd) compiled by 'stahn@M-Bot' on 2023-08-01
          program call               : xtb conf.xyz --opt tight --chrg 0 --uhf 0 --gfn2

   ID    Z sym.   atoms
    1    6 C      1-4
    2    1 H      5-14

          :  Hamiltonian                  GFN2-xTB          :
 * total energy  :   -13.6648139 Eh     change       -0.5477396E-10 Eh
 * total energy  :   -13.6651025 Eh     change       -0.2885863E-03 Eh
 * total energy  :   -13.6651264 Eh     change       -0.2390829E-04 Eh
 * total energy  :   -13.6651276 Eh     change       -0.1195631E-05 Eh
 * total energy  :   -13.6651278 Eh     change       -0.1823814E-06 Eh
   *** GEOMETRY OPTIMIZATION CONVERGED AFTER 5 ITERATIONS ***

 final structure:
================
14
 xtb: 6.6.1 (8d0f1dd)
C           -1.89245910129393        0.06503456268109       -0.43361658282173
C           -0.39767349996912        0.33174355488931       -0.56088394355700
C            0.39767341472402       -0.33174285209098        0.56088445443156
C            1.89245916084865       -0.06503507646478        0.43361622431930
H           -2.26937567937265        0.44942542634250        0.51190695467708
H           -2.09389296275131       -1.00351489206434       -0.47187441893329
H           -2.43861429764579        0.54625810979952       -1.24175336514094
H           -0.04265828363357       -0.04353503999055       -1.52363149583423
H           -0.21812527968104        1.40927607636068       -0.53993686536410
H            0.21812437368024       -1.40927525041885        0.53993801560480
H            0.04265892900123        0.04353651266461        1.52363197791738
H            2.26937496639126       -0.44942684220857       -0.51190725357780
H            2.09389387587238        1.00351424654054        0.47187325952700
H            2.43861438382964       -0.54625854604019        1.24175303875198

          :  Hamiltonian                  GFN2-xTB          :
         :: total energy             -13.665127753846 Eh    ::
         :: gradient norm              0.000039817845 Eh/a0 ::
         :: HOMO-LUMO gap             13.800902710508 eV    ::
         :: SCC energy               -13.876023301813 Eh    ::
         :: -> dispersion             -0.006049009475 Eh    ::
         :: repulsion energy           0.210891677565 Eh    ::

    * Orbital Energies and Occupations

         #    Occupation            Energy/Eh            Energy/eV
      -------------------------------------------------------------
         1        2.0000           -0.6179675             -16.8158
         2        2.0000           -0.5989686             -16.2988
         3        2.0000           -0.5679197             -15.4539
         4        2.0000           -0.5523984             -15.0315
         5        2.0000           -0.5138390             -13.9823
         6        2.0000           -0.4918421             -13.3837
         7        2.0000           -0.4878873             -13.2761
         8        2.0000           -0.4789776             -13.0336
         9        2.0000           -0.4546550             -12.3718
        10        2.0000           -0.4395123             -11.9597
        11        2.0000           -0.4367371             -11.8842
        12        2.0000           -0.4258105             -11.5869
        13        2.0000           -0.4195592             -11.4168 (HOMO)
        14                          0.0876147               2.3841 (LUMO)
        15                          0.1267124               3.4480
        16                          0.1277836               3.4772
        17                          0.1525450               4.1510
        18                          0.1629251               4.4334
        19                          0.1836974               4.9987
        20                          0.1937241               5.2715
        21                          0.1971258               5.3641
        22                          0.2245161               6.1094
        23                          0.2549115               6.9365
        24                          0.2645565               7.1989
       ...                                ...                  ...
        26                          0.3113861               8.4732
      -------------------------------------------------------------
                  HL-Gap            0.5071738 Eh           13.8009 eV

     #   Z          covCN         q      C6AA      α(0)
     1   6 C        3.752    -0.102    22.510     6.766
     2   6 C        3.801    -0.053    21.534     6.607
     3   6 C        3.801    -0.053    21.534     6.607
     4   6 C        3.752    -0.102    22.510     6.766
     5   1 H        0.925     0.033     2.550     2.497
     6   1 H        0.925     0.033     2.550     2.497
     7   1 H        0.925     0.032     2.554     2.499
     8   1 H        0.924     0.029     2.600     2.522
     9   1 H        0.924     0.029     2.600     2.522
    10   1 H        0.924     0.029     2.600     2.522
    11   1 H        0.924     0.029     2.600     2.522
    12   1 H        0.925     0.033     2.550     2.497
    13   1 H        0.925     0.033     2.550     2.497
    14   1 H        0.925     0.032     2.554     2.499

Wiberg/Mayer (AO) data.
largest (>0.10) Wiberg bond orders for each atom

     #   Z sym  total        # sym  WBO       # sym  WBO       # sym  WBO
 ---------------------------------------------------------------------------
     1   6 C    3.997 --     2 C    1.019     5 H    0.988     6 H    0.988
                             7 H    0.988
     2   6 C    3.998 --     1 C    1.019     3 C    1.009     9 H    0.979
                             8 H    0.979
     3   6 C    3.998 --     4 C    1.019     2 C    1.009    11 H    0.979
                            10 H    0.979
     4   6 C    3.997 --     3 C    1.019    12 H    0.988    13 H    0.988
                            14 H    0.988
     5   1 H    0.999 --     1 C    0.988
     6   1 H    0.999 --     1 C    0.988
     7   1 H    0.999 --     1 C    0.988
     8   1 H    0.999 --     2 C    0.979
     9   1 H    0.999 --     2 C    0.979
    10   1 H    0.999 --     3 C    0.979
    11   1 H    0.999 --     3 C    0.979
    12   1 H    0.999 --     4 C    0.988
    13   1 H    0.999 --     4 C    0.988
    14   1 H    0.999 --     4 C    0.988
 ---------------------------------------------------------------------------

molecular dipole:
                 x           y           z       tot (Debye)
 q only:        0.000      -0.000      -0.000
   full:        0.000      -0.000      -0.000       0.000

           -------------------------------------------------
          | TOTAL ENERGY              -13.665127753846 Eh   |
          | GRADIENT NORM               0.000039817845 Eh/α |
          | HOMO-LUMO GAP              13.800902710508 eV   |
           -------------------------------------------------

 * finished run on 2025/08/26 at 12:19:44.778
